TITLE     = "numerical"
VARIABLES = "x"
 "y"
 "z"
 "sigma_xx"
 "sigma_yy"
 "sigma_zz"
 "sigma_inv"
 "eps_inv"
 "material"
ZONE T="Elastic"
 N=279,  E=807, F=FEBLOCK ET=Tetrahedron 
 VARLOCATION=(NODAL NODAL NODAL CELLCENTERED CELLCENTERED CELLCENTERED CELLCENTERED CELLCENTERED CELLCENTERED)
4.2607448892e+01
1.6167753343e+02
3.7586576553e+01
1.6595739340e+02
2.2010307793e+02
2.1991859360e+02
4.2898528220e+01
3.8473732285e+01
0.0000000000e+00
-5.8811236684e+01
5.8104826744e+01
6.5202397481e+01
2.2475925731e+01
8.4874651533e+00
3.9121715939e+01
3.4476740649e+01
3.1347796086e+01
3.0307421770e+01
2.9309669075e+01
3.7778392490e+01
5.9982453021e+01
6.5535971448e+01
1.2183594982e+01
2.5772414901e+00
3.3214469685e+01
2.1201287519e+02
2.0967444058e+02
2.0836869448e+02
2.0917812253e+02
2.1165167239e+02
1.8699123395e+02
1.5612679796e+02
1.3663430896e+02
1.4569533321e+02
1.6095179813e+02
1.5628674873e+02
1.5522794215e+02
1.5556680703e+02
1.5797435519e+02
1.6190836676e+02
1.8575409018e+02
1.5697122043e+02
1.4538722519e+02
1.5099441289e+02
1.6069491785e+02
-4.6678574412e+01
-5.7010261491e+01
-4.0918955549e+01
-8.0358759267e+00
1.6776777296e+01
7.2126346731e+01
8.4453909485e+01
8.8945276131e+01
1.0063874758e+02
1.2881776969e+02
-8.0441815962e+00
3.0164613792e+01
9.1366401526e+01
1.4587863191e+02
1.8486440512e+02
6.6885552751e+01
7.9395424116e+01
8.8441440163e+01
1.0241507648e+02
1.3225095871e+02
4.1154198406e+01
4.1859558373e+01
4.3551920136e+01
3.9870862093e+01
3.9914156763e+01
-5.1319254681e+01
-5.2049319914e+01
-3.4923358344e+01
-5.9258073110e+00
1.5785580346e+01
-2.4048498639e+01
2.6976446047e+01
9.0367187118e+01
1.4506902365e+02
1.8498815656e+02
-5.3861817077e+01
-5.9338769261e+01
-5.9043125283e+01
-5.9218789308e+01
-5.8280551920e+01
5.8570394535e+01
1.2873073771e+01
2.7195483919e+01
3.8502698665e+01
3.3552514291e+01
2.7504970350e+01
3.0283530466e+01
3.0445255453e+01
5.6868594685e+01
4.7612753740e+01
2.1128777989e+00
1.8616206471e+01
4.6555337363e+01
5.0416209243e+01
5.2777962730e+01
5.1041079589e+01
4.9437356892e+01
2.7321075833e+01
5.8162098011e+01
1.5073362260e+01
5.8778073418e+01
2.9634433675e+01
6.4714443253e+01
1.5176172906e+01
2.3896576412e+01
1.4643126429e+00
2.4685332400e+01
5.1632091480e+01
1.7723167215e+02
1.6744103955e+02
1.6540880108e+02
1.7495525207e+02
1.5543724750e+02
1.3512665039e+02
1.3460616136e+02
1.5335798616e+02
1.5313979424e+02
1.5252743664e+02
1.6516003430e+02
1.3803260211e+02
1.4565384108e+02
1.5080249640e+02
1.5594600365e+02
1.4034011731e+02
1.3896841931e+02
1.3751710724e+02
1.2335308610e+02
1.4670714082e+02
1.2786185599e+02
1.4815212158e+02
1.4694902592e+02
1.4027343290e+02
1.2442496450e+02
-2.5510002897e+01
-1.0594207217e+00
5.6751963609e+01
8.9282944069e+01
3.5656191503e+00
5.0174227780e+01
9.5358337042e+01
1.3782888597e+02
1.2599774985e+02
1.2247926333e+02
1.1501031702e+02
1.2627618126e+02
8.5098213272e+01
7.5186851307e+01
4.7741133895e+01
-2.0935499692e+01
8.3443529437e+01
2.7506054096e+01
7.2947730435e+01
1.0046739248e+02
8.8425691561e+01
7.8706672613e+01
8.6194439532e+01
9.1459454862e+01
1.1361428334e+02
1.2646397729e+02
1.2524468514e+02
1.2727798193e+02
1.3158993296e+02
7.3882927801e+01
9.3834276523e+01
6.4990182939e+01
6.4889467988e+01
6.7022094648e+01
8.4340845587e+01
1.1282191189e+02
6.5975442974e+01
8.6205800152e+01
9.8397979575e+01
1.0218090585e+02
1.0111464337e+02
7.6542587096e+01
8.6494456984e+01
7.7545583614e+01
7.9259115452e+01
8.5479997617e+01
-2.6306959399e+01
-1.3055814734e+01
1.1750736958e+01
3.4837399176e+01
6.1761003676e+01
7.3965651907e+01
8.6209471848e+01
1.0961706225e+02
-3.4593429538e+00
9.0616705259e+01
1.4338128244e+02
9.5034856185e+01
8.7067455851e+01
5.0933767971e+01
4.1588177664e+01
8.4797250842e+01
4.3473473062e+01
1.3128330576e+02
1.1776678990e+02
1.2023731048e+02
2.9873452357e+00
-3.9888003334e+00
1.1088211526e+02
1.7711120010e+02
1.7058919160e+02
-1.8569906021e+00
6.0621586081e+01
1.1983837579e+02
1.6395060134e+02
-3.1612957041e+01
-2.7313625244e+01
-2.9183974462e+01
-1.9268765996e+01
4.9064694560e+01
1.5258269698e+02
1.6955752036e+02
1.7963498428e+02
1.2313737552e+02
1.3536302459e+02
6.9495686752e+01
9.2372391759e+00
3.3224420898e+01
8.9611278727e+01
1.4219163600e+02
1.4282404696e+01
1.1388711895e+01
5.6196598463e+01
-5.6859143289e+01
-5.8803811141e+01
-5.4009135338e+01
-2.1185604137e+01
1.6918512098e+01
1.6210660135e+01
1.5785858341e+01
1.8241182572e+01
-5.4274730212e+01
-5.3560605370e+01
-3.1215476281e+01
-3.0080436598e+00
-5.9144826612e+01
-5.6237455896e+01
-4.5209368503e+01
1.1773509677e+00
-3.3081009913e+01
-5.1609661986e+01
-5.2007292338e+01
-5.3236254773e+01
-3.3616720619e+00
-6.7481307459e+00
-3.9779028972e+00
-4.4431383376e+01
-2.2467310002e+01
-2.8657962284e+01
9.9935556971e+01
8.9537998971e+01
1.0519495669e+02
1.0201358723e+02
1.0786530061e+02
7.7752323011e+01
5.0426269424e+01
5.4155624549e+01
7.6681792984e+01
-8.2880386355e+00
5.3396681388e+01
5.4774076894e+01
-2.2651488928e+00
6.8238848172e+01
7.7020786179e+01
5.2654374816e+01
9.7448275204e+01
-2.1449430443e+01
6.5288925212e+01
1.0198283758e+02
7.0424635205e+01
5.8759312702e+01

4.6287385423e+01
1.6445144518e+02
4.7568931145e+01
1.6139147179e+02
3.3250998158e+01
3.2061563881e+01
1.9621282316e+02
1.8763766980e+02
0.0000000000e+00
-3.4688364360e+01
4.1880901399e+01
1.5388107266e+01
6.8043604335e+00
-3.4560402884e+01
-9.8767542928e-01
4.0820008081e+01
3.2411050248e+01
3.2686672065e+01
3.4682442844e+01
3.9247787231e+01
3.9997122073e+01
8.7725334277e+00
4.6385054208e+00
-4.1217860314e+01
-8.7497221093e-01
2.6399739117e+01
2.5384028875e+01
2.4144619632e+01
2.6260975776e+01
2.8025479173e+01
6.4226634527e+01
8.2823355108e+01
8.8076571840e+01
9.9208642229e+01
1.2926202253e+02
1.5961682987e+02
1.5593798901e+02
1.5499888111e+02
1.5582059900e+02
1.5729149924e+02
6.2210878515e+01
8.1503615729e+01
9.0644462807e+01
1.0106301044e+02
1.2995321802e+02
2.4889678593e+00
3.5267394550e+01
8.5431476816e+01
1.2887686680e+02
1.6152230503e+02
1.6567700673e+02
1.3754070922e+02
1.3065075955e+02
1.4346732453e+02
1.5711603201e+02
-5.4699926616e+01
-8.1144818142e+01
-7.3610763312e+01
-3.5960379301e+01
1.7467986877e+00
1.5894954654e+02
1.3872215317e+02
1.3297693414e+02
1.4751781148e+02
1.5823956097e+02
1.9022129275e+02
1.8863264504e+02
1.8676213555e+02
1.8528540553e+02
1.8642094661e+02
-2.9899233042e+00
3.8418116653e+01
8.2727635712e+01
1.1940539693e+02
1.5240568773e+02
-5.2288110595e+01
-7.1051901707e+01
-6.3330606971e+01
-3.2798651054e+01
3.6557496754e-01
-4.0110940883e+01
-4.8108031699e+01
-5.2469848436e+01
-4.8236059176e+01
-4.1628264360e+01
3.4411964414e+01
-1.5837951459e+01
-3.3629295172e+01
2.1060627240e+01
4.2638614959e+00
9.5998389265e-02
-1.0822691939e+01
4.9123867043e+00
3.0211814946e+01
1.1566321061e+01
-1.2411925360e+01
-4.3686610533e+01
3.5122157298e+01
3.9177377120e+01
1.3800760066e+01
4.1958343049e+01
3.6233041181e+01
-4.8588204471e+00
1.3273493591e+01
-5.2544515801e+01
1.1096283573e+01
-6.8738426545e-01
1.3405535125e+01
-4.9121122837e+01
-3.8417524212e+01
-3.4082351969e+01
-1.2969022522e+01
3.2325231230e+00
4.9430956776e+01
4.8955582399e+01
4.9987658120e+01
5.2548910718e+01
7.3825737351e+01
8.3980863717e+01
9.4850935668e+01
1.1589743550e+02
1.2765628188e+02
1.2648499875e+02
6.4789024112e+01
9.4879205183e+01
1.0558105953e+02
1.2611224639e+02
1.2921555763e+02
8.1514789461e+01
6.3385227929e+01
6.8811664561e+01
8.3604961895e+01
1.0030371450e+02
8.0284066819e+01
9.9877332543e+01
6.5400685048e+01
9.7669525488e+01
7.9804748288e+01
-7.6019896937e+00
7.0217141550e+01
1.1977040663e+02
1.0381837596e+02
-4.3228700329e+01
-5.1099464612e+01
-1.9888481672e+01
1.8653852851e+01
5.6114647269e+01
7.7529343798e+01
8.8084920921e+01
1.1009503880e+02
7.7648363122e+01
6.8927554951e+01
6.4851223911e+01
1.4574100671e+01
3.3976010214e+01
1.1151716091e+02
8.6915925172e+01
1.0176255066e+02
6.3947995652e+01
1.4266291933e+02
1.2507258074e+02
1.2898365873e+02
1.4700511011e+02
1.5022872107e+02
1.4723373717e+02
1.4812678015e+02
1.5214581096e+02
1.4111882830e+02
1.3336353260e+02
1.6076751258e+02
1.5553687923e+02
1.4780153624e+02
1.2766040952e+02
1.4889495310e+02
1.5278687888e+02
1.2186021494e+02
1.3616883357e+02
1.3910490698e+02
1.3915230333e+02
1.2684701472e+02
1.2609292024e+02
1.3317627785e+02
1.2817053952e+02
1.2493704846e+02
2.1252919221e+00
2.4031713007e+01
7.1404511918e+01
1.1414240779e+02
1.1142352658e+02
9.1149757263e+01
9.1914456430e+01
1.1633962165e+02
-3.7458299999e+01
-2.5581440847e+01
4.7160384761e+01
7.5524316449e+01
7.6934796364e+01
6.6004314514e+01
-3.5763281094e+01
3.9963245647e+01
-5.3083672765e+01
8.4340341170e+00
6.8425513733e+01
1.0227185000e+02
-2.9690438531e+01
-7.0904455022e+01
-6.6386122212e+01
-6.0876043973e+00
-1.4948250023e+01
-7.4578298804e+01
-7.7859522329e+01
-5.6668524038e+01
-1.7317817759e+01
-6.2084424288e+01
-6.5847170145e+01
-7.0582406986e+01
-6.8851618512e+01
-8.2981848053e+01
-2.9188409221e+01
-1.5653175381e+01
-4.1346945786e+00
-6.4163214579e+01
-4.9440485716e+01
-8.5499246156e+01
-7.9661087513e+01
-8.2817515567e+01
-7.2784650619e+01
-4.1506632958e+01
-8.2259028045e+01
-7.9365242044e+01
-8.8591018018e+01
-1.2529195481e+01
-1.9719502302e+01
7.3480357204e+00
9.6207688087e+01
1.5966691155e+02
1.5455550637e+02
1.5130457661e+02
1.5327184222e+02
2.0209220508e+01
5.6528941980e+01
9.9560524949e+01
1.3356899341e+02
-1.4186380153e+01
-1.7169134108e+01
5.3103208914e+01
1.3015828984e+02
7.1521676604e+01
2.1389372099e+01
3.2643885584e+01
2.6204290124e+01
1.2620366675e+02
1.1589365871e+02
1.1875131967e+02
6.6984507847e+01
1.0306302684e+02
8.4928931058e+01
9.1860783624e+01
2.4769687180e+01
9.0409786187e+01
1.2581122599e+01
9.9181037054e+01
7.8909109358e+01
7.9247391857e+01
7.4836949223e+01
7.8910106173e+01
-4.4664251621e+01
-6.1493158436e+01
-6.3396214337e+01
-4.8087296273e+01
-4.5192025376e+01
7.2785515175e+01
9.1972036339e+01
1.6293148464e+01
-3.7538355368e+01
6.1101113512e+01
4.9910188841e+01
5.9509030269e+01
4.0232144235e+01

-2.3089073885e+00
1.5138736866e+01
1.9944608977e+02
1.8712884465e+02
1.9591378186e+02
4.3889694143e+00
7.5588145688e+00
1.9188203613e+02
0.0000000000e+00
2.1538472307e+02
2.0038792349e+02
1.9853602054e+02
2.0310331033e+02
2.1459699274e+02
2.0272055289e+02
3.1057719732e+01
6.4052944499e+01
9.7896112174e+01
1.3102780153e+02
1.6486273879e+02
-5.2495500154e+00
1.4347341672e+00
-5.7037966868e+00
-1.5180564821e+01
-6.2459819112e+00
3.7101680891e+01
6.8301898209e+01
1.0037167797e+02
1.3222686521e+02
1.6339315128e+02
1.9115660231e+02
1.9046089710e+02
1.9358417822e+02
1.9392027157e+02
1.9113471530e+02
4.6156346457e+01
7.3900058404e+01
9.9218180168e+01
1.2544902500e+02
1.5510477673e+02
8.1062828306e+00
9.3100605149e+00
1.1889370898e+01
9.5802796307e+00
8.9675504476e+00
-4.9330479214e+00
-3.1967576045e+00
-4.3459220491e-01
6.2143758270e-01
1.7006340554e+00
8.6147519371e+00
4.8211381371e+00
2.0136895338e+00
4.6654552071e+00
1.0228566508e+01
-3.5951527913e+00
-5.8140156324e+00
-7.6695055010e+00
-1.0056482343e+01
-4.9122620208e+00
1.9371111389e+02
1.9670685270e+02
1.9797976366e+02
1.9482640557e+02
1.9242351419e+02
4.0663304691e+01
7.2434796644e+01
1.0115109915e+02
1.2852061009e+02
1.5919315376e+02
2.0803047470e+02
2.0175684296e+02
1.9875332273e+02
1.9788659746e+02
1.9578562998e+02
2.1740856096e+02
2.1414332940e+02
2.1112695492e+02
2.1089883005e+02
2.0461093648e+02
3.1787082525e+01
6.3096293671e+01
1.0042565840e+02
1.4361653989e+02
1.8038404447e+02
1.7197173231e+02
1.7222393173e+02
1.7657651400e+02
1.7657729351e+02
4.3021422099e+01
7.8088746108e+01
1.1268172353e+02
1.4744003291e+02
2.4132401468e+01
2.8119863220e+01
2.3800066641e+01
2.4947368238e+01
5.2786430087e+01
1.1619509223e+02
1.6829598628e+02
1.4456207405e+02
8.2949428382e+01
1.3894381992e+02
1.0040407625e+02
8.9531638230e+01
6.2739163688e+01
5.4192331747e+01
1.3964488305e+02
1.3380232989e+02
5.8114296568e+01
5.7614973530e+01
9.3843183209e+01
1.1709876620e+02
5.8073364962e+01
8.5018977205e+01
1.1420485153e+02
1.4753937488e+02
1.6227103199e+02
1.6134115627e+02
1.6180974223e+02
1.6352713067e+02
5.7541222158e+01
1.1288429209e+02
3.5992469725e+01
3.7721651316e+01
4.6051470412e+01
8.7169946791e+01
1.3871375289e+02
3.9274668921e+01
9.5513518474e+01
1.2983643880e+02
1.3600105018e+02
1.3118092223e+02
6.8163199515e+01
1.0209860496e+02
6.4756476671e+01
7.6884926667e+01
1.0323215590e+02
-4.8901741411e+00
-1.2406121163e+00
3.6889820976e+00
-1.2813464132e-02
-8.3853966808e+00
-9.1287755195e+00
-8.4982669988e+00
-3.1792633893e+00
2.3145044707e+00
6.8752409240e+00
5.7585616304e+00
5.0298493662e+00
-1.3014045627e+00
-1.1492991671e+00
1.5305703754e-01
-6.4812794702e+00
-3.0971729461e+00
1.7322536725e+00
-7.4997985706e-01
6.1853537914e-01
2.0968609303e+00
3.5331963130e+01
3.6950140848e+01
3.8591729736e+01
3.8329706771e+01
6.2945206732e+01
8.9103329053e+01
1.1603589878e+02
1.4589645565e+02
1.6185372606e+02
1.6549271755e+02
5.2818041246e+01
1.0967005681e+02
1.3396641404e+02
1.6686175661e+02
1.6507443881e+02
8.3720848877e+01
7.0146703648e+01
7.2370593552e+01
1.0311980357e+02
1.3392316817e+02
1.0025261260e+02
1.3981640738e+02
6.5147239542e+01
1.3354043957e+02
1.0631162175e+02
2.0569671453e+02
2.0348406225e+02
1.9789259566e+02
1.9633104329e+02
1.9763537749e+02
2.0119563113e+02
1.9831488766e+02
1.9702382471e+02
2.1139248715e+02
2.0581968154e+02
1.9738267828e+02
1.9677575490e+02
2.0022596245e+02
1.9739948921e+02
2.0918248377e+02
1.9889363528e+02
2.0922596955e+02
2.0398860566e+02
1.9521058079e+02
1.9768154761e+02
2.0880266008e+02
2.2964594064e+01
2.1860904111e+01
4.3834705672e+01
1.1610747363e+02
1.8659315101e+02
1.8434067302e+02
1.8153196589e+02
1.7758729524e+02
4.8921416258e+01
7.9751117027e+01
1.1560022635e+02
1.5166049421e+02
2.3145393853e+01
2.0927536631e+01
8.0034589438e+01
1.4758142880e+02
1.0306439290e+02
5.5676258875e+01
6.3726367844e+01
5.4118790619e+01
1.5504148855e+02
1.4856639299e+02
1.4610471014e+02
9.1273423479e+01
1.2516308285e+02
1.1465436271e+02
4.0875343640e+01
1.1717554255e+02
1.7692370381e+02
1.6573252329e+02
5.2531248318e+01
8.7569235919e+01
1.1812698400e+02
1.5055678617e+02
2.3810635131e+01
2.4947472013e+01
2.8672950471e+01
3.5985929878e+01
7.7824101157e+01
1.5254803861e+02
1.6735042732e+02
1.6960373177e+02
1.2950040737e+02
1.3858224780e+02
9.6737583616e+01
5.5299902511e+01
7.2787528045e+01
1.0667507532e+02
1.3803958099e+02
5.8801719750e+01
5.7578962945e+01
8.8879859744e+01
5.2489159272e+01
9.6111542366e+01
1.0065156504e+02
1.4951242852e+02
1.5041038413e+02
1.4109817804e+02
1.5418034631e+02
9.9074521986e+01
9.7056342439e+01
4.3215484761e+01
4.0102750711e+01
9.1423200208e+01
1.6230071231e+02
1.5904546538e+02
4.6361371360e+01
4.8070521825e+01
4.5398100860e+01
1.0463680188e+02
1.2471199375e+01
1.7162083439e+02
1.8310460551e+02
1.0942542195e+01

-520883195.4766992927
-301389314.2424452901
-105684465.6880498230
-1573262893.1373448372
-1336296892.5627262592
112048240.4181163311
777289344.0660880804
-1512468936.0299074650
-129221903.4761408269
-2576247461.4039311409
521012853.2488355637
756509650.8142713308
-1780454799.1367909908
-1217756256.9997560978
525275699.5085301995
899312421.4204504490
-96096948.0390117615
-287748731.0246068835
-388406296.4350356460
-66796257.2044868991
-4693753742.7908258438
692732269.5612117052
-341098924.8850682974
-1786229455.6287810802
65915116.9663464203
-516739100.1991094351
584449260.8715380430
-447046060.9416604638
-406146497.8290215135
1158630040.4762544632
85555873.5453528762
-309833990.1511799693
140280973.4010739028
-2782266504.7119679451
-2255079233.9431014061
-333387528.7611326575
-799595772.5434578657
-144331350.3770768940
-607864922.1906111240
-437623887.3127754927
170247100.8196519911
-277478277.1798455119
663745938.6227643490
-1999014477.0260443687
-125171902.8986564726
630452348.8410003185
-383158227.9136145115
-2137882450.4133272171
-759003077.9503339529
-557613938.7320401669
-553296795.9932216406
-138868399.7508208454
1703856174.2519800663
-1787914969.9279742241
190377497.2139534652
1015160170.7420591116
-194352946.9590541422
399783951.3710083961
-564711697.5997285843
-32625052.6575242803
-611345572.4605438709
-326162798.4445831180
1022729766.1227909327
-92053552.4431455731
-2403963533.4982481003
-1685998178.6046197414
110466459.6088431478
-228415600.0115032196
-2416855566.7753129005
5377606981.0717496872
-4196146133.7667512894
914047398.2782796621
-332973386.0493140817
566310907.6626421213
-1974940913.9224171638
-512129080.1350663304
-180333226.1124579012
-154743849.0887239277
84287272.4412863106
1037788700.4330738783
-259028008.2250949442
-1807918891.2890305519
-98468339.6019398868
75461448.8143348843
325432867.3157150745
142770203.2809817791
-384701488.5678188801
61675965.5316668749
-270229324.1205399632
-2128436524.4095509052
-987075361.9016486406
-1404760257.5983295441
40194611.4065566808
-546466875.7966171503
116658776.2202449888
137408819.1741431355
-1688650087.3836216927
-615350121.6249729395
-804519026.5388449430
-888097967.2607167959
467332245.7091342807
486239007.4987226725
470222143.7529506683
237540223.3255035877
286142727.7072482705
856147584.5903599262
980848010.6384747028
221417947.7383978367
-507140648.8708966374
-1870721118.0065548420
-550663460.1577714682
-115597087.1622634381
-649281000.1687613726
-2269498338.8639602661
-373329259.3247406483
235742616.5367252529
-1287383604.8379180431
1029829290.2350761890
-814970864.0409988165
1057964405.0831278563
-671472016.8575520515
-696468619.3987261057
372401301.3796519637
473675881.8572012186
129376322.4208142012
468438363.7975082994
-698149784.5206707716
107919842.8154445738
-110239621.9872675538
-171933926.6395845413
-474421280.2392814159
-2214855746.3965868950
-707907623.4805546999
-2436927387.0623698235
-7163850.0177058047
-2091271345.7295536995
1164365171.0441596508
1920305528.7725625038
-1451323331.8038167953
-256477610.7770360708
-170514329.5295023620
-1071309328.3015143871
133691094.3635285199
127020255.7023843229
292037269.7385113835
195231264.2859663367
-14644744.2318176888
229706435.4202251732
-1019295670.3559044600
208201168.1342543960
-1100378059.9094045162
-4232446108.3662490845
880209518.4270553589
-541302077.3657234907
-722746682.7297236919
297512521.7604218721
106855652.5359373093
77856617.1086967140
-2642323767.4692683220
20494014.6084203906
-955144514.5730851889
-1137871504.4889149666
1227063410.5700268745
1120843335.3000195026
2617984291.6270794868
-413620927.7726099491
-390638842.9588108063
-31984272.5116083734
-401961008.5344878435
105767275.1446920633
-1392526204.6172630787
1008441937.3667852879
-1320640757.2488422394
-1579089432.2020430565
-2305242145.7893848419
-312729302.7491671443
-279451446.8333887458
162014559.2930974960
-249993713.6629977822
-2572373239.7106094360
-160271211.3259040713
-150987611.8198423982
-2773271467.6715302467
137093702.5504447222
-1547504945.5683043003
-24995260.6729005054
-294547072.7848603129
40719690.0859691575
-683185216.0546908379
-220795491.2486046255
-881142776.7444505692
-77173827.5632157177
248007214.0359075069
-40839420.4600750506
-1806161747.1422433853
-2430871732.2074165344
-62861283.4483053759
1047414684.9665230513
252823780.9803126752
309743121.7304485440
-1536252352.8881368637
1672700978.0043349266
956053544.1941388845
-4347945902.6592864990
-594854516.9143780470
-1824609108.1132748127
1067769088.0490480661
-2716134619.8739805222
-78143070.9848958403
-167348236.8991987705
-2135422358.6299052238
-16652419.5053013582
-605422394.7385399342
-1607426360.6083064079
-275046276.9204807281
126865174.2413655072
-2301611166.9498686790
296973748.4954575300
322798093.3272785544
-178822828.3243465424
780273775.4583368301
-2374009504.1336550713
835458537.7654498816
-48399300.5022233576
626788999.2987056971
-1809025619.4100120068
731477243.9626868963
364652489.2564812899
681382535.6715664864
-1426108989.9875793457
-274592518.2864093781
-115576167.7903293371
-435023294.8897918463
1016088091.0252575874
-66804527.1875449717
725879429.2941555977
-1230673939.4004178047
191924488.6075714827
-115453157.2999344319
130582529.9102682024
502122880.6447512507
-2036110366.3782424927
-1391984797.1296439171
-483290189.3188853860
-400705614.4884467721
782422636.5994210243
-741566209.7324037552
-2316726327.3091907501
-248914581.3043164015
-667993952.0025726557
-1961808359.5288090706
157986066.3176463544
-448086055.9699019194
-110058086.6400029361
-109276820.8212043345
-1904330520.1230177879
223248962.0533420444
-835499435.7765939236
-77543274.8706155270
-101495916.6027906537
-353497618.6440953612
-868207385.9859679937
713485187.6362279654
373910041.4837369323
1483353658.0406570435
417247137.3864017725
304577222.8962036967
-1373908984.8563442230
-2291628113.7241072655
358317181.8036109805
318838877.8263999224
-13354540.3025527168
-4260067169.3991894722
-60238893.6232506484
-428938255.4004829526
-366001237.2764070034
-155944709.6334293783
-853585673.3697537184
-1417807402.4335315228
230312508.8976565003
838548331.5953539610
25614477.4542823732
-242358958.2727743685
-422838555.7182355523
-1168031073.5882894993
-2941687672.6565909386
-1001629628.2376497984
282608677.7333655953
-686670069.1623584032
458325742.8995737433
-2125042558.9652605057
-1762236597.5765781403
1284263773.8920278549
-867635071.5132846832
330467113.2328590751
-83617532.8997257054
-315508736.9663237333
-2012735772.7204923630
-714811078.6684551239
-818496139.4529231787
-162708473.6268190145
-110992257.9180338681
-103996520.7514370829
-1255344847.1144006252
989669849.0654672384
-1902622968.5354111195
-806392175.7485333681
-2593014654.8150076866
331308939.2802337408
-155965001.2117003202
-516728690.2467263341
606073156.4920328856
-435610154.1526621580
-846868675.8191776276
-384241298.4091288447
333548162.6232296824
1072584534.3792819977
866653473.7676935196
-2157022343.2436256409
379760605.1358156800
316801570.7817447782
284163602.4202857018
-64032958.5776285306
-2648399482.8452339172
-385974718.9031090140
623794036.0626920462
1655618780.4815435410
-481857218.6647592187
2116982431.0662319660
-1301122739.1198797226
-261074098.2073374391
-177648401.0355279744
-654308919.1401580572
2041170986.4155759811
1026086850.3553102016
188110811.3881696761
-1745020294.7406258583
245875312.5258406401
-2376191693.1612300873
298242976.2727941871
-271873598.3572376966
1295650482.5020232201
-300244985.7464667559
92887098.3186184317
-114992610.2471423745
534877632.1777884364
2329354368.1500759125
-193139069.5779808462
-1117124623.0522975922
276611077.8923937678
-526488599.3722934723
-860642604.9438978434
-572162240.6727553606
-970299485.3092328310
766255949.4110271931
1365148575.8138458729
-389116826.9689154625
-65712083.1876801476
246173971.5480075479
-2031784829.0146670341
-700527959.6159784794
113937853.3938973397
155509559.5674861670
1234753875.7567763329
-35378914.6258642450
2751793462.6608333588
-36093492.6941732839
559289994.0072020292
2142314810.5480780602
1613701740.4269537926
-1363865001.5805621147
559221868.3775246143
-1039425482.1762378216
360076859.8224767447
408937648.9838340878
108376423.6193083525
-411752557.3534533978
-2335104023.0393190384
-2401960705.1166176796
-1338165380.4132840633
-2418699075.9678039551
-123740863.5393920988
67155908.8209329098
-2389377560.8823180199
-815990920.7907224894
-2640906192.1978468895
-1383551466.3098127842
428534574.1140545607
1016220896.2088319063
229258485.4148507714
-423925066.4672133327
472136757.4851098657
-585023465.5180845261
-394857526.0361958146
-509087683.4017505646
-647495159.0604581833
164776660.0897347927
-116572645.3214530051
320324292.8425862789
-1689015453.9220345020
349068031.1691288948
-37160627.0103125945
-940087870.5721958876
-95855419.8645844012
-319368715.6875168085
-104398721.0507774502
-1991212758.2591943741
-750259775.2630945444
463380852.0480460525
371962105.8401630521
-282447410.3756937981
1578922544.8481447697
-507560989.0582920909
-1752561534.3195867538
-236004744.1090526283
-1676042028.9316816330
-611281683.1549280882
-300640274.4953817129
-396729870.1627143621
-1199508609.3586139679
-1545637913.9904701710
-789095339.1060005426
-444043108.5647475123
-78501232.4352847189
-1862515155.1463687420
-952318829.1505185366
-1448178649.1598212719
41820331.2213032618
266512542.2292559743
725596799.1163830757
-1714436513.8125865459
-2173010190.3542399406
-524649224.7805490494
-2361104759.8803319931
-1225683021.6491935253
-1783064600.2039942741
147781945.1219898164
-2157123543.8862485886
775935496.4691296816
-817232976.3781964779
-141668708.3295777440
504868618.0760793686
907963727.8739515543
118711443.7846977562
134365086.6296345592
293913017.8945637941
-1103829689.2984213829
-278670959.7979031205
312882022.1533877850
-252355047.0492326915
-1346744660.4347100258
1926893948.6219117641
431026557.6791978478
38782254.6291103512
-1237431453.9164395332
-504094707.8239334822
-6302079404.0901594162
418082238.9514865279
-596400831.0721676350
-485088126.6153088808
-1483508413.6121957302
1203319214.8661606312
381515107.6414785981
2173148661.8109669685
106147446.7713691592
521793048.4364440441
-118611038.8512770236
401832632.8107392192
-38597966.4971389174
444268016.9190883636
1275505507.5514187813
630320994.3535495996
862467780.6193751097
428880247.2649865746
-386827499.5789739490
-341905687.4803441763
83806115.5362561792
746516578.6794620752
1676930634.7518489361
-576483268.7192502022
454014937.5235694051
240128631.9117830992
569496593.5572776794
-924685638.2662316561
-150593189.8707101345
-2046429734.4118325710
-1559196708.4108083248
-540689905.5601251125
-48908621.1964887604
-48599207.1228208393
1663136209.7706973553
2429822547.4128508568
128957603.0028713495
-313006459.4537218213
467288.9136660200
-63268094.6889210194
562308150.3556863070
1481033311.5967419147
2008132611.3282630444
165343138.1280432343
-700043644.6788128614
-2288930837.2658791542
161972700.8129599988
-270084930.2915996313
-509569262.4757682681
-1390042170.7277574539
846198356.7713198662
-268882411.0805918574
2496935444.7050147057
-253633882.7643747032
-126504203.7926449329
-233198011.4779420197
-688907885.9019205570
1193220040.8484063148
349357511.1697191596
-583639231.2790819407
-464449354.9892293811
-1494888137.4547538757
-1844855780.9672067165
-532979089.8603566289
133932774.7062155604
-108436239.2729240358
-2121622075.1371686459
88776213.9061182886
463125417.2690873146
310329419.6692083478
1653043336.5254695415
1025097277.7566022873
-1977789927.3386247158
562705301.8068794012
1092763547.3764495850
22674434.4913509712
1019822928.4485479593
579451286.2901203632
1649948815.9311473370
-99107356.5778599977
385085554.6199783087
344710881.8524841666
-106201448.8972619623
-533220527.6585384011
-2662573374.5474166870
1804046931.9636130333
-106242183.2697634697
-2720856351.3326363564
-637280459.7799910307
-917042146.8603991270
-802253504.8389312029
-563934702.8767739534
-409968769.9817237854
-2281480713.3076872826
-232303204.2621137202
-193167743.5520051420
-1566254582.7228498459
-156640081.9989171624
2299508410.3408207893
-121689069.5219692886
1845737925.3955700397
506687155.6535050869
-157945101.5631395578
251509332.2138899863
465971834.1869328022
-180051026.1728687584
204238935.0219717920
21004501.3466694281
-153240642.6045018137
212651751.3983941376
-1573744576.3125944138
358220429.4502646923
2021177290.9803686142
-441840489.1723341942
860238366.1846612692
2689908634.7751793861
1167192260.1001772881
328603959.4236687422
71931809.5690773129
1209075388.6626880169
1070922699.6788470745
-313736800.3660604358
401441600.8454536200
1381702663.2598202229
-374084378.1191645265
-349020114.9052376747
-2178920353.9091038704
-4160838916.7884879112
-391863516.1823781729
-381604627.6249781847
-1491919614.6111912727
-644026007.9091708660
-688416699.5381832123
2340803045.9008989334
-1304152021.8488421440
-865461025.3028005362
-661766643.0987383127
-560581257.2147616148
-510817761.6268941760
1939029174.7714364529
226972365.2460126579
681491681.5328720808
1110057127.4197490215
59748187.0063600689
-190974443.8327780068
37376347.3971463367
768926173.4708722830
-1655688709.9109287262
116069195.1520788968
13404622.8076633792
-2557647988.5030751228
-107107303.1109654605
224373995.4248335361
-82959165.2491512150
1690426213.1170344353
-1804879316.3976998329
-705798447.5830216408
-1739228023.2584905624
-292242774.7690007091
1253881298.2126197815
973087723.6737748384
-149171381.8292472661
719569212.9596520662
58092357.7079060301
-1904600521.9090530872
-85204691.5079503655
-280592465.5446262956
-1395797696.3833515644
1593313707.0740320683
807375743.0708644390
-1422407026.6118016243
-4962446423.9379186630
-639232327.4283322096
-1181921566.8959348202
76157927.0603046268
-2257160479.3685846329
422485822.1263185740
-1576805239.1598196030
-486598689.8790564537
326395728.1194380522
182036184.6810935140
-997665897.4848314524
-330967364.4971637726
-517123735.4705176353
2067018992.7207939625
179338535.7619042397
393454926.0034350753
1130033443.8043432236
928408389.9473606348
130336696.3691824079
886832691.8010413647
109278610.9564508051
555769134.8678227663
29376452.1151699945
247504988.7022314072
-777829975.1717818975
-40817945.0129682273
-764498852.1169713736
-487687744.5156767964
-1173257014.3158199787
-153069389.5208790004
-4345684877.4559440613
-123221776.2419670522
-513799559.4614745975
-370244530.8748109937
-758989081.1147558689
-1812780359.4347529411
-372255276.0338813663
-324253633.8255630732
733097731.6985965967
-448324650.6808892488
-856868641.2111933231
99129069.3336022794
-1457586722.2553122044
-2573967716.9557518959
262305896.3659035563
1380385750.5874955654
-192572604.7783243358
2200315159.8531742096
197722823.5685089231
558118938.3445049524
397717242.1036333442
487244803.0530903935
786412176.5229959488
-158783076.0766687095
653103327.8588906527
-4490792822.7445182800
-493848113.0674123168
-4420894345.3392314911
-3763417084.9469890594
-1231967799.6784563065
-231311370.9896482527
582680423.9499559402
15835468.4651155043
-896025348.5378328562
-138715534.8383782804
-169133641.9591024220
-328385669.9017909169
-1802557697.0600101948
-391444821.7780857086
-869808109.1443037987
910032677.5383746624
-450503747.8983321786
-1389360956.5126919746
-606192933.0105400085
-641059753.4524770975