TITLE     = "numerical"
VARIABLES = "x"
 "y"
 "z"
ZONE T="circle"
 N=221,  E=400, F=FEBLOCK ET=Triangle 
 VARLOCATION=(NODAL NODAL NODAL)
1.0000000000e+02
1.0500000000e+02
1.0000000000e+02
9.5000000000e+01
1.0000000000e+02
1.1000000000e+02
1.0707106781e+02
1.0000000000e+02
9.2928932188e+01
9.0000000000e+01
9.2928932188e+01
1.0000000000e+02
1.0707106781e+02
1.1500000000e+02
1.1299038106e+02
1.0750000000e+02
1.0000000000e+02
9.2500000000e+01
8.7009618943e+01
8.5000000000e+01
8.7009618943e+01
9.2500000000e+01
1.0000000000e+02
1.0750000000e+02
1.1299038106e+02
1.2000000000e+02
1.1847759065e+02
1.1414213562e+02
1.0765366865e+02
1.0000000000e+02
9.2346331353e+01
8.5857864376e+01
8.1522409350e+01
8.0000000000e+01
8.1522409350e+01
8.5857864376e+01
9.2346331353e+01
1.0000000000e+02
1.0765366865e+02
1.1414213562e+02
1.1847759065e+02
1.2500000000e+02
1.2377641291e+02
1.2022542486e+02
1.1469463131e+02
1.0772542486e+02
1.0000000000e+02
9.2274575141e+01
8.5305368693e+01
7.9774575141e+01
7.6223587093e+01
7.5000000000e+01
7.6223587093e+01
7.9774575141e+01
8.5305368693e+01
9.2274575141e+01
1.0000000000e+02
1.0772542486e+02
1.1469463131e+02
1.2022542486e+02
1.2377641291e+02
1.3000000000e+02
1.2897777479e+02
1.2598076211e+02
1.2121320344e+02
1.1500000000e+02
1.0776457135e+02
1.0000000000e+02
9.2235428647e+01
8.5000000000e+01
7.8786796564e+01
7.4019237886e+01
7.1022225211e+01
7.0000000000e+01
7.1022225211e+01
7.4019237886e+01
7.8786796564e+01
8.5000000000e+01
9.2235428647e+01
1.0000000000e+02
1.0776457135e+02
1.1500000000e+02
1.2121320344e+02
1.2598076211e+02
1.2897777479e+02
1.3500000000e+02
1.3412247693e+02
1.3153391038e+02
1.2736410189e+02
1.2182214307e+02
1.1518593087e+02
1.0778823269e+02
1.0000000000e+02
9.2211767312e+01
8.4814069131e+01
7.8177856935e+01
7.2635898114e+01
6.8466089623e+01
6.5877523074e+01
6.5000000000e+01
6.5877523074e+01
6.8466089623e+01
7.2635898114e+01
7.8177856935e+01
8.4814069131e+01
9.2211767312e+01
1.0000000000e+02
1.0778823269e+02
1.1518593087e+02
1.2182214307e+02
1.2736410189e+02
1.3153391038e+02
1.3412247693e+02
1.4000000000e+02
1.3923141122e+02
1.3695518130e+02
1.3325878449e+02
1.2828427125e+02
1.2222280932e+02
1.1530733729e+02
1.0780361288e+02
1.0000000000e+02
9.2196387119e+01
8.4692662705e+01
7.7777190679e+01
7.1715728753e+01
6.6741215508e+01
6.3044818700e+01
6.0768588784e+01
6.0000000000e+01
6.0768588784e+01
6.3044818700e+01
6.6741215508e+01
7.1715728753e+01
7.7777190679e+01
8.4692662705e+01
9.2196387119e+01
1.0000000000e+02
1.0780361288e+02
1.1530733729e+02
1.2222280932e+02
1.2828427125e+02
1.3325878449e+02
1.3695518130e+02
1.3923141122e+02
1.4500000000e+02
1.4431634889e+02
1.4228616794e+02
1.3897114317e+02
1.3447199994e+02
1.2892544244e+02
1.2250000000e+02
1.1539090645e+02
1.0781416800e+02
1.0000000000e+02
9.2185832005e+01
8.4609093550e+01
7.7500000000e+01
7.1074557564e+01
6.5528000060e+01
6.1028856830e+01
5.7713832065e+01
5.5683651114e+01
5.5000000000e+01
5.5683651114e+01
5.7713832065e+01
6.1028856830e+01
6.5528000060e+01
7.1074557564e+01
7.7500000000e+01
8.4609093550e+01
9.2185832005e+01
1.0000000000e+02
1.0781416800e+02
1.1539090645e+02
1.2250000000e+02
1.2892544244e+02
1.3447199994e+02
1.3897114317e+02
1.4228616794e+02
1.4431634889e+02
1.5000000000e+02
1.4938441703e+02
1.4755282581e+02
1.4455032621e+02
1.4045084972e+02
1.3535533906e+02
1.2938926261e+02
1.2269952499e+02
1.1545084972e+02
1.0782172325e+02
1.0000000000e+02
9.2178276748e+01
8.4549150281e+01
7.7300475013e+01
7.0610737385e+01
6.4644660941e+01
5.9549150281e+01
5.5449673791e+01
5.2447174185e+01
5.0615582970e+01
5.0000000000e+01
5.0615582970e+01
5.2447174185e+01
5.5449673791e+01
5.9549150281e+01
6.4644660941e+01
7.0610737385e+01
7.7300475013e+01
8.4549150281e+01
9.2178276748e+01
1.0000000000e+02
1.0782172325e+02
1.1545084972e+02
1.2269952499e+02
1.2938926261e+02
1.3535533906e+02
1.4045084972e+02
1.4455032621e+02
1.4755282581e+02
1.4938441703e+02

1.0000000000e+02
1.0000000000e+02
1.0500000000e+02
1.0000000000e+02
9.5000000000e+01
1.0000000000e+02
1.0707106781e+02
1.1000000000e+02
1.0707106781e+02
1.0000000000e+02
9.2928932188e+01
9.0000000000e+01
9.2928932188e+01
1.0000000000e+02
1.0750000000e+02
1.1299038106e+02
1.1500000000e+02
1.1299038106e+02
1.0750000000e+02
1.0000000000e+02
9.2500000000e+01
8.7009618943e+01
8.5000000000e+01
8.7009618943e+01
9.2500000000e+01
1.0000000000e+02
1.0765366865e+02
1.1414213562e+02
1.1847759065e+02
1.2000000000e+02
1.1847759065e+02
1.1414213562e+02
1.0765366865e+02
1.0000000000e+02
9.2346331353e+01
8.5857864376e+01
8.1522409350e+01
8.0000000000e+01
8.1522409350e+01
8.5857864376e+01
9.2346331353e+01
1.0000000000e+02
1.0772542486e+02
1.1469463131e+02
1.2022542486e+02
1.2377641291e+02
1.2500000000e+02
1.2377641291e+02
1.2022542486e+02
1.1469463131e+02
1.0772542486e+02
1.0000000000e+02
9.2274575141e+01
8.5305368693e+01
7.9774575141e+01
7.6223587093e+01
7.5000000000e+01
7.6223587093e+01
7.9774575141e+01
8.5305368693e+01
9.2274575141e+01
1.0000000000e+02
1.0776457135e+02
1.1500000000e+02
1.2121320344e+02
1.2598076211e+02
1.2897777479e+02
1.3000000000e+02
1.2897777479e+02
1.2598076211e+02
1.2121320344e+02
1.1500000000e+02
1.0776457135e+02
1.0000000000e+02
9.2235428647e+01
8.5000000000e+01
7.8786796564e+01
7.4019237886e+01
7.1022225211e+01
7.0000000000e+01
7.1022225211e+01
7.4019237886e+01
7.8786796564e+01
8.5000000000e+01
9.2235428647e+01
1.0000000000e+02
1.0778823269e+02
1.1518593087e+02
1.2182214307e+02
1.2736410189e+02
1.3153391038e+02
1.3412247693e+02
1.3500000000e+02
1.3412247693e+02
1.3153391038e+02
1.2736410189e+02
1.2182214307e+02
1.1518593087e+02
1.0778823269e+02
1.0000000000e+02
9.2211767312e+01
8.4814069131e+01
7.8177856935e+01
7.2635898114e+01
6.8466089623e+01
6.5877523074e+01
6.5000000000e+01
6.5877523074e+01
6.8466089623e+01
7.2635898114e+01
7.8177856935e+01
8.4814069131e+01
9.2211767312e+01
1.0000000000e+02
1.0780361288e+02
1.1530733729e+02
1.2222280932e+02
1.2828427125e+02
1.3325878449e+02
1.3695518130e+02
1.3923141122e+02
1.4000000000e+02
1.3923141122e+02
1.3695518130e+02
1.3325878449e+02
1.2828427125e+02
1.2222280932e+02
1.1530733729e+02
1.0780361288e+02
1.0000000000e+02
9.2196387119e+01
8.4692662705e+01
7.7777190679e+01
7.1715728753e+01
6.6741215508e+01
6.3044818700e+01
6.0768588784e+01
6.0000000000e+01
6.0768588784e+01
6.3044818700e+01
6.6741215508e+01
7.1715728753e+01
7.7777190679e+01
8.4692662705e+01
9.2196387119e+01
1.0000000000e+02
1.0781416800e+02
1.1539090645e+02
1.2250000000e+02
1.2892544244e+02
1.3447199994e+02
1.3897114317e+02
1.4228616794e+02
1.4431634889e+02
1.4500000000e+02
1.4431634889e+02
1.4228616794e+02
1.3897114317e+02
1.3447199994e+02
1.2892544244e+02
1.2250000000e+02
1.1539090645e+02
1.0781416800e+02
1.0000000000e+02
9.2185832005e+01
8.4609093550e+01
7.7500000000e+01
7.1074557564e+01
6.5528000060e+01
6.1028856830e+01
5.7713832065e+01
5.5683651114e+01
5.5000000000e+01
5.5683651114e+01
5.7713832065e+01
6.1028856830e+01
6.5528000060e+01
7.1074557564e+01
7.7500000000e+01
8.4609093550e+01
9.2185832005e+01
1.0000000000e+02
1.0782172325e+02
1.1545084972e+02
1.2269952499e+02
1.2938926261e+02
1.3535533906e+02
1.4045084972e+02
1.4455032621e+02
1.4755282581e+02
1.4938441703e+02
1.5000000000e+02
1.4938441703e+02
1.4755282581e+02
1.4455032621e+02
1.4045084972e+02
1.3535533906e+02
1.2938926261e+02
1.2269952499e+02
1.1545084972e+02
1.0782172325e+02
1.0000000000e+02
9.2178276748e+01
8.4549150281e+01
7.7300475013e+01
7.0610737385e+01
6.4644660941e+01
5.9549150281e+01
5.5449673791e+01
5.2447174185e+01
5.0615582970e+01
5.0000000000e+01
5.0615582970e+01
5.2447174185e+01
5.5449673791e+01
5.9549150281e+01
6.4644660941e+01
7.0610737385e+01
7.7300475013e+01
8.4549150281e+01
9.2178276748e+01

1.0000000000e+02
1.0000000000e+02
1.0000000000e+02
1.0000000000e+02
1.0000000000e+02
1.0000000000e+02
1.0000000000e+02
1.0000000000e+02
1.0000000000e+02
1.0000000000e+02
1.0000000000e+02
1.0000000000e+02
1.0000000000e+02
1.0000000000e+02
1.0000000000e+02
1.0000000000e+02
1.0000000000e+02
1.0000000000e+02
1.0000000000e+02
1.0000000000e+02
1.0000000000e+02
1.0000000000e+02
1.0000000000e+02
1.0000000000e+02
1.0000000000e+02
1.0000000000e+02
1.0000000000e+02
1.0000000000e+02
1.0000000000e+02
1.0000000000e+02
1.0000000000e+02
1.0000000000e+02
1.0000000000e+02
1.0000000000e+02
1.0000000000e+02
1.0000000000e+02
1.0000000000e+02
1.0000000000e+02
1.0000000000e+02
1.0000000000e+02
1.0000000000e+02
1.0000000000e+02
1.0000000000e+02
1.0000000000e+02
1.0000000000e+02
1.0000000000e+02
1.0000000000e+02
1.0000000000e+02
1.0000000000e+02
1.0000000000e+02
1.0000000000e+02
1.0000000000e+02
1.0000000000e+02
1.0000000000e+02
1.0000000000e+02
1.0000000000e+02
1.0000000000e+02
1.0000000000e+02
1.0000000000e+02
1.0000000000e+02
1.0000000000e+02
1.0000000000e+02
1.0000000000e+02
1.0000000000e+02
1.0000000000e+02
1.0000000000e+02
1.0000000000e+02
1.0000000000e+02
1.0000000000e+02
1.0000000000e+02
1.0000000000e+02
1.0000000000e+02
1.0000000000e+02
1.0000000000e+02
1.0000000000e+02
1.0000000000e+02
1.0000000000e+02
1.0000000000e+02
1.0000000000e+02
1.0000000000e+02
1.0000000000e+02
1.0000000000e+02
1.0000000000e+02
1.0000000000e+02
1.0000000000e+02
1.0000000000e+02
1.0000000000e+02
1.0000000000e+02
1.0000000000e+02
1.0000000000e+02
1.0000000000e+02
1.0000000000e+02
1.0000000000e+02
1.0000000000e+02
1.0000000000e+02
1.0000000000e+02
1.0000000000e+02
1.0000000000e+02
1.0000000000e+02
1.0000000000e+02
1.0000000000e+02
1.0000000000e+02
1.0000000000e+02
1.0000000000e+02
1.0000000000e+02
1.0000000000e+02
1.0000000000e+02
1.0000000000e+02
1.0000000000e+02
1.0000000000e+02
1.0000000000e+02
1.0000000000e+02
1.0000000000e+02
1.0000000000e+02
1.0000000000e+02
1.0000000000e+02
1.0000000000e+02
1.0000000000e+02
1.0000000000e+02
1.0000000000e+02
1.0000000000e+02
1.0000000000e+02
1.0000000000e+02
1.0000000000e+02
1.0000000000e+02
1.0000000000e+02
1.0000000000e+02
1.0000000000e+02
1.0000000000e+02
1.0000000000e+02
1.0000000000e+02
1.0000000000e+02
1.0000000000e+02
1.0000000000e+02
1.0000000000e+02
1.0000000000e+02
1.0000000000e+02
1.0000000000e+02
1.0000000000e+02
1.0000000000e+02
1.0000000000e+02
1.0000000000e+02
1.0000000000e+02
1.0000000000e+02
1.0000000000e+02
1.0000000000e+02
1.0000000000e+02
1.0000000000e+02
1.0000000000e+02
1.0000000000e+02
1.0000000000e+02
1.0000000000e+02
1.0000000000e+02
1.0000000000e+02
1.0000000000e+02
1.0000000000e+02
1.0000000000e+02
1.0000000000e+02
1.0000000000e+02
1.0000000000e+02
1.0000000000e+02
1.0000000000e+02
1.0000000000e+02
1.0000000000e+02
1.0000000000e+02
1.0000000000e+02
1.0000000000e+02
1.0000000000e+02
1.0000000000e+02
1.0000000000e+02
1.0000000000e+02
1.0000000000e+02
1.0000000000e+02
1.0000000000e+02
1.0000000000e+02
1.0000000000e+02
1.0000000000e+02
1.0000000000e+02
1.0000000000e+02
1.0000000000e+02
1.0000000000e+02
1.0000000000e+02
1.0000000000e+02
1.0000000000e+02
1.0000000000e+02
1.0000000000e+02
1.0000000000e+02
1.0000000000e+02
1.0000000000e+02
1.0000000000e+02
1.0000000000e+02
1.0000000000e+02
1.0000000000e+02
1.0000000000e+02
1.0000000000e+02
1.0000000000e+02
1.0000000000e+02
1.0000000000e+02
1.0000000000e+02
1.0000000000e+02
1.0000000000e+02
1.0000000000e+02
1.0000000000e+02
1.0000000000e+02
1.0000000000e+02
1.0000000000e+02
1.0000000000e+02
1.0000000000e+02
1.0000000000e+02
1.0000000000e+02
1.0000000000e+02
1.0000000000e+02
1.0000000000e+02
1.0000000000e+02
1.0000000000e+02
1.0000000000e+02
1.0000000000e+02
1.0000000000e+02
1.0000000000e+02
1.0000000000e+02
1.0000000000e+02

2 1 3 
3 1 4 
4 1 5 
5 1 2 
6 2 7 
2 7 3 
7 3 8 
8 3 9 
3 9 4 
9 4 10 
10 4 11 
4 11 5 
11 5 12 
12 5 13 
5 13 2 
13 2 6 
14 6 15 
6 15 7 
15 7 16 
7 16 8 
16 8 17 
17 8 18 
8 18 9 
18 9 19 
9 19 10 
19 10 20 
20 10 21 
10 21 11 
21 11 22 
11 22 12 
22 12 23 
23 12 24 
12 24 13 
24 13 25 
13 25 6 
25 6 14 
26 14 27 
14 27 15 
27 15 28 
15 28 16 
28 16 29 
16 29 17 
29 17 30 
30 17 31 
17 31 18 
31 18 32 
18 32 19 
32 19 33 
19 33 20 
33 20 34 
34 20 35 
20 35 21 
35 21 36 
21 36 22 
36 22 37 
22 37 23 
37 23 38 
38 23 39 
23 39 24 
39 24 40 
24 40 25 
40 25 41 
25 41 14 
41 14 26 
42 26 43 
26 43 27 
43 27 44 
27 44 28 
44 28 45 
28 45 29 
45 29 46 
29 46 30 
46 30 47 
47 30 48 
30 48 31 
48 31 49 
31 49 32 
49 32 50 
32 50 33 
50 33 51 
33 51 34 
51 34 52 
52 34 53 
34 53 35 
53 35 54 
35 54 36 
54 36 55 
36 55 37 
55 37 56 
37 56 38 
56 38 57 
57 38 58 
38 58 39 
58 39 59 
39 59 40 
59 40 60 
40 60 41 
60 41 61 
41 61 26 
61 26 42 
62 42 63 
42 63 43 
63 43 64 
43 64 44 
64 44 65 
44 65 45 
65 45 66 
45 66 46 
66 46 67 
46 67 47 
67 47 68 
68 47 69 
47 69 48 
69 48 70 
48 70 49 
70 49 71 
49 71 50 
71 50 72 
50 72 51 
72 51 73 
51 73 52 
73 52 74 
74 52 75 
52 75 53 
75 53 76 
53 76 54 
76 54 77 
54 77 55 
77 55 78 
55 78 56 
78 56 79 
56 79 57 
79 57 80 
80 57 81 
57 81 58 
81 58 82 
58 82 59 
82 59 83 
59 83 60 
83 60 84 
60 84 61 
84 61 85 
61 85 42 
85 42 62 
86 62 87 
62 87 63 
87 63 88 
63 88 64 
88 64 89 
64 89 65 
89 65 90 
65 90 66 
90 66 91 
66 91 67 
91 67 92 
67 92 68 
92 68 93 
93 68 94 
68 94 69 
94 69 95 
69 95 70 
95 70 96 
70 96 71 
96 71 97 
71 97 72 
97 72 98 
72 98 73 
98 73 99 
73 99 74 
99 74 100 
100 74 101 
74 101 75 
101 75 102 
75 102 76 
102 76 103 
76 103 77 
103 77 104 
77 104 78 
104 78 105 
78 105 79 
105 79 106 
79 106 80 
106 80 107 
107 80 108 
80 108 81 
108 81 109 
81 109 82 
109 82 110 
82 110 83 
110 83 111 
83 111 84 
111 84 112 
84 112 85 
112 85 113 
85 113 62 
113 62 86 
114 86 115 
86 115 87 
115 87 116 
87 116 88 
116 88 117 
88 117 89 
117 89 118 
89 118 90 
118 90 119 
90 119 91 
119 91 120 
91 120 92 
120 92 121 
92 121 93 
121 93 122 
122 93 123 
93 123 94 
123 94 124 
94 124 95 
124 95 125 
95 125 96 
125 96 126 
96 126 97 
126 97 127 
97 127 98 
127 98 128 
98 128 99 
128 99 129 
99 129 100 
129 100 130 
130 100 131 
100 131 101 
131 101 132 
101 132 102 
132 102 133 
102 133 103 
133 103 134 
103 134 104 
134 104 135 
104 135 105 
135 105 136 
105 136 106 
136 106 137 
106 137 107 
137 107 138 
138 107 139 
107 139 108 
139 108 140 
108 140 109 
140 109 141 
109 141 110 
141 110 142 
110 142 111 
142 111 143 
111 143 112 
143 112 144 
112 144 113 
144 113 145 
113 145 86 
145 86 114 
146 114 147 
114 147 115 
147 115 148 
115 148 116 
148 116 149 
116 149 117 
149 117 150 
117 150 118 
150 118 151 
118 151 119 
151 119 152 
119 152 120 
152 120 153 
120 153 121 
153 121 154 
121 154 122 
154 122 155 
155 122 156 
122 156 123 
156 123 157 
123 157 124 
157 124 158 
124 158 125 
158 125 159 
125 159 126 
159 126 160 
126 160 127 
160 127 161 
127 161 128 
161 128 162 
128 162 129 
162 129 163 
129 163 130 
163 130 164 
164 130 165 
130 165 131 
165 131 166 
131 166 132 
166 132 167 
132 167 133 
167 133 168 
133 168 134 
168 134 169 
134 169 135 
169 135 170 
135 170 136 
170 136 171 
136 171 137 
171 137 172 
137 172 138 
172 138 173 
173 138 174 
138 174 139 
174 139 175 
139 175 140 
175 140 176 
140 176 141 
176 141 177 
141 177 142 
177 142 178 
142 178 143 
178 143 179 
143 179 144 
179 144 180 
144 180 145 
180 145 181 
145 181 114 
181 114 146 
182 146 183 
146 183 147 
183 147 184 
147 184 148 
184 148 185 
148 185 149 
185 149 186 
149 186 150 
186 150 187 
150 187 151 
187 151 188 
151 188 152 
188 152 189 
152 189 153 
189 153 190 
153 190 154 
190 154 191 
154 191 155 
191 155 192 
192 155 193 
155 193 156 
193 156 194 
156 194 157 
194 157 195 
157 195 158 
195 158 196 
158 196 159 
196 159 197 
159 197 160 
197 160 198 
160 198 161 
198 161 199 
161 199 162 
199 162 200 
162 200 163 
200 163 201 
163 201 164 
201 164 202 
202 164 203 
164 203 165 
203 165 204 
165 204 166 
204 166 205 
166 205 167 
205 167 206 
167 206 168 
206 168 207 
168 207 169 
207 169 208 
169 208 170 
208 170 209 
170 209 171 
209 171 210 
171 210 172 
210 172 211 
172 211 173 
211 173 212 
212 173 213 
173 213 174 
213 174 214 
174 214 175 
214 175 215 
175 215 176 
215 176 216 
176 216 177 
216 177 217 
177 217 178 
217 178 218 
178 218 179 
218 179 219 
179 219 180 
219 180 220 
180 220 181 
220 181 221 
181 221 146 
221 146 182 
